&FCI NORB=6,NELEC=6,MS2=0 
 ORBSYM=1,1,1,1,1,1, 
 ISYM=1, 
&END  
 1.571326572291e-01                 1     1     1     1 
5.348559052251e-16                 2     1     1     1 
1.114021648956e-01                 2     1     2     1 
1.114021648956e-01                 2     2     1     1 
-6.542631562391e-16                2     2     2     1 
1.794433961151e-01                 2     2     2     2 
6.042041866827e-16                 3     1     1     1 
-1.132300091362e-16                3     1     2     1 
-5.963416670617e-02                3     1     2     2 
1.190804932866e-01                 3     1     3     1 
-1.112486296660e-16                3     2     1     1 
-5.963416670617e-02                3     2     2     1 
1.022100427298e-15                 3     2     2     2 
-1.484286326660e-15                3     2     3     1 
1.291320507772e-01                 3     2     3     2 
1.190804932866e-01                 3     3     1     1 
-1.484315464593e-15                3     3     2     1 
1.291320507772e-01                 3     3     2     2 
6.398830154366e-02                 3     3     3     1 
1.346361918979e-15                 3     3     3     2 
2.111146088216e-01                 3     3     3     3 
5.456369405778e-16                 4     1     1     1 
-3.310069232598e-17                4     1     2     1 
-6.873929864985e-16                4     1     2     2 
1.512550122044e-15                 4     1     3     1 
1.245355272898e-16                 4     1     3     2 
2.934481271259e-16                 4     1     3     3 
1.190804932866e-01                 4     1     4     1 
-3.502379592943e-17                4     2     1     1 
-6.872764347649e-16                4     2     2     1 
-1.518698225988e-15                4     2     2     2 
1.250600100908e-16                 4     2     3     1 
8.594816210735e-16                 4     2     3     2 
-8.571214484693e-16                4     2     3     3 
-6.615185016521e-16                4     2     4     1 
1.291320507772e-01                 4     2     4     2 
1.512520984110e-15                 4     3     1     1 
1.240693203557e-16                 4     3     2     1 
8.669846389203e-16                 4     3     2     2 
2.934626960925e-16                 4     3     3     1 
-8.608073970425e-16                4     3     3     2 
-1.415309553853e-15                4     3     3     3 
6.398830154366e-02                 4     3     4     1 
-4.213053788216e-16                4     3     4     2 
2.111146088216e-01                 4     3     4     3 
1.190804932866e-01                 4     4     1     1 
-6.615185016521e-16                4     4     2     1 
1.291320507772e-01                 4     4     2     2 
6.398830154366e-02                 4     4     3     1 
-4.185081372166e-16                4     4     3     2 
2.111146088216e-01                 4     4     3     3 
2.554813999245e-15                 4     4     4     1 
1.864973426342e-16                 4     4     4     2 
5.876494698297e-15                 4     4     4     3 
2.111146088216e-01                 4     4     4     4 
6.641117777234e-16                 5     1     1     1 
-2.124738102474e-16                5     1     2     1 
-4.902748671452e-16                5     1     2     2 
-2.701669183508e-16                5     1     3     1 
-3.799003754808e-16                5     1     3     2 
-3.143108874299e-16                5     1     3     3 
8.117828241214e-16                 5     1     4     1 
5.963416670617e-02                 5     1     4     2 
1.287809241841e-15                 5     1     4     3 
1.497107017349e-16                 5     1     4     4 
1.114021648956e-01                 5     1     5     1 
-2.124155343806e-16                5     2     1     1 
-4.885848670089e-16                5     2     2     1 
1.091506984623e-16                 5     2     2     2 
-3.836591688875e-16                5     2     3     1 
1.107212330717e-15                 5     2     3     2 
1.524773485099e-15                 5     2     3     3 
5.963416670617e-02                 5     2     4     1 
2.869212300475e-16                 5     2     4     2 
-1.291320507772e-01                5     2     4     3 
-2.886054025972e-15                5     2     4     4 
-1.181484922917e-15                5     2     5     1 
1.794433961151e-01                 5     2     5     2 
-2.719151943539e-16                5     3     1     1 
-3.799586513475e-16                5     3     2     1 
1.111029399991e-15                 5     3     2     2 
-3.139029563625e-16                5     3     3     1 
1.516833398251e-15                 5     3     3     2 
2.191026900926e-16                 5     3     3     3 
1.286847690039e-15                 5     3     4     1 
-1.291320507772e-01                5     3     4     2 
-1.576362196158e-16                5     3     4     3 
-8.265266184145e-16                5     3     4     4 
-5.963416670617e-02                5     3     5     1 
8.686309321566e-16                 5     3     5     2 
1.291320507772e-01                 5     3     5     3 
8.110252378533e-16                 5     4     1     1 
5.963416670617e-02                 5     4     2     1 
2.869212300475e-16                 5     4     2     2 
1.285449069237e-15                 5     4     3     1 
-1.291320507772e-01                5     4     3     2 
-1.567038057475e-16                5     4     3     3 
1.468260463298e-16                 5     4     4     1 
-2.874442559518e-15                5     4     4     2 
-8.246909286112e-16                5     4     4     3 
1.608676164283e-15                 5     4     4     4 
-7.944166158236e-16                5     4     5     1 
6.943569525776e-16                 5     4     5     2 
4.976176263584e-16                 5     4     5     3 
1.291320507772e-01                 5     4     5     4 
1.114021648956e-01                 5     5     1     1 
-1.178629405445e-15                5     5     2     1 
1.794433961151e-01                 5     5     2     2 
-5.963416670617e-02                5     5     3     1 
8.658336905516e-16                 5     5     3     2 
1.291320507772e-01                 5     5     3     3 
-7.954655814255e-16                5     5     4     1 
6.972998838495e-16                 5     5     4     2 
5.018571956660e-16                 5     5     4     3 
1.291320507772e-01                 5     5     4     4 
1.049256981214e-15                 5     5     5     1 
2.948176099950e-16                 5     5     5     2 
-1.103978020112e-15                5     5     5     3 
4.426926219266e-16                 5     5     5     4 
1.794433961151e-01                 5     5     5     5 
9.968669769864e-16                 6     1     1     1 
-1.498855293353e-16                6     1     2     1 
-4.941793502189e-17                6     1     2     2 
4.262879654306e-16                 6     1     3     1 
-4.627103821625e-16                6     1     3     2 
-1.082153708006e-15                6     1     3     3 
4.509969329415e-16                 6     1     4     1 
-7.296138519741e-16                6     1     4     2 
1.190804932866e-01                 6     1     4     3 
3.255144228166e-15                 6     1     4     4 
-1.440579426581e-16                6     1     5     1 
-1.114021648956e-01                6     1     5     2 
-8.898724855946e-17                6     1     5     3 
-7.114900574083e-16                6     1     5     4 
2.151545001189e-16                 6     1     5     5 
1.571326572291e-01                 6     1     6     1 
-1.517503570719e-16                6     2     1     1 
-4.563000368177e-17                6     2     2     1 
1.157125610607e-15                 6     2     2     2 
-4.600296922910e-16                6     2     3     1 
4.773667626554e-16                 6     2     3     2 
2.657962283430e-16                 6     2     3     3 
-7.285648863722e-16                6     2     4     1 
-5.963416670617e-02                6     2     4     2 
-3.018981278077e-16                6     2     4     3 
-1.958943261510e-16                6     2     4     4 
-1.114021648956e-01                6     2     5     1 
3.473824418225e-16                 6     2     5     2 
5.963416670617e-02                 6     2     5     3 
7.063326431991e-16                 6     2     5     4 
-3.839214102880e-16                6     2     5     5 
5.115455585167e-16                 6     2     6     1 
1.114021648956e-01                 6     2     6     2 
4.254138274290e-16                 6     3     1     1 
-4.581648645544e-16                6     3     2     1 
4.763760729203e-16                 6     3     2     2 
-1.081716639005e-15                6     3     3     1 
2.667577801447e-16                 6     3     3     2 
-1.255801222017e-15                6     3     3     3 
1.190804932866e-01                 6     3     4     1 
-3.009948518727e-16                6     3     4     2 
6.398830154366e-02                 6     3     4     3 
9.997224944581e-16                 6     3     4     4 
-8.788000709081e-17                6     3     5     1 
5.963416670617e-02                 6     3     5     2 
9.213997295178e-16                 6     3     5     3 
7.051379879303e-18                 6     3     5     4 
3.599991669784e-16                 6     3     5     5 
1.377641490469e-16                 6     3     6     1 
1.677179445672e-16                 6     3     6     2 
1.190804932866e-01                 6     3     6     3 
4.507055536077e-16                 6     4     1     1 
-7.285648863722e-16                6     4     2     1 
-5.963416670617e-02                6     4     2     2 
1.190804932866e-01                 6     4     3     1 
-3.037920934777e-16                6     4     3     2 
6.398830154366e-02                 6     4     3     3 
3.251414572693e-15                 6     4     4     1 
-1.987498436228e-16                6     4     4     2 
9.924962869785e-16                 6     4     4     3 
6.398830154366e-02                 6     4     4     4 
-7.170845406183e-16                6     4     5     1 
7.036228153942e-16                 6     4     5     2 
6.118966010965e-18                 6     4     5     3 
1.005841460469e-16                 6     4     5     4 
-5.963416670617e-02                6     4     5     5 
4.329896901092e-17                 6     4     6     1 
-1.777413936518e-17                6     4     6     2 
6.567107426435e-16                 6     4     6     3 
1.190804932866e-01                 6     4     6     4 
-1.418434597208e-16                6     5     1     1 
-1.114021648956e-01                6     5     2     1 
3.473241659557e-16                 6     5     2     2 
-8.904552442623e-17                6     5     3     1 
5.963416670617e-02                 6     5     3     2 
9.238181779888e-16                 6     5     3     3 
-7.142872990133e-16                6     5     4     1 
7.026904015259e-16                 6     5     4     2 
2.855517471784e-18                 6     5     4     3 
1.001179391127e-16                 6     5     4     4 
2.226720869324e-16                 6     5     5     1 
-3.838631344212e-16                6     5     5     2 
3.637288224518e-16                 6     5     5     3 
-5.963416670617e-02                6     5     5     4 
8.722731738298e-16                 6     5     5     5 
6.268152229899e-16                 6     5     6     1 
4.673724515042e-17                 6     5     6     2 
-2.892814026517e-16                6     5     6     3 
5.206948695997e-16                 6     5     6     4 
1.114021648956e-01                 6     5     6     5 
1.571326572291e-01                 6     6     1     1 
5.106131446483e-16                 6     6     2     1 
1.114021648956e-01                 6     6     2     2 
1.368317351785e-16                 6     6     3     1 
1.686503584356e-16                 6     6     3     2 
1.190804932866e-01                 6     6     3     3 
4.720345208459e-17                 6     6     4     1 
-1.783241523196e-17                6     6     4     2 
6.566233288433e-16                 6     6     4     3 
1.190804932866e-01                 6     6     4     4 
6.324097061999e-16                 6     6     5     1 
5.046690062377e-17                 6     6     5     2 
-2.855517471784e-16                6     6     5     3 
5.199955591985e-16                 6     6     5     4 
1.114021648956e-01                 6     6     5     5 
3.169041635012e-16                 6     6     6     1 
-1.067613879246e-16                6     6     6     2 
-6.940655732438e-17                6     6     6     3 
-1.433586322569e-17                6     6     6     4 
-1.254096652914e-16                6     6     6     5 
1.571326572291e-01                 6     6     6     6 
8.427117863332e-01                 1     1     0     0 
-1.671724341734e-15                2     1     0     0 
1.255773698393e+00                 2     2     0     0 
-4.354134837488e-03                3     1     0     0 
4.798780480550e-15                 3     2     0     0 
1.556681211874e+00                 3     3     0     0 
2.116516800688e-15                 4     1     0     0 
-2.944249996360e-15                4     2     0     0 
6.320135700663e-15                 4     3     0     0 
1.824664482356e+00                 4     4     0     0 
4.310724691496e-15                 5     1     0     0 
1.220463939194e-15                 5     2     0     0 
-1.175020261585e-15                5     3     0     0 
9.475540274631e-15                 5     4     0     0 
2.204271078032e+00                 5     5     0     0 
3.210727853292e-15                 6     1     0     0 
1.768536692418e-15                 6     2     0     0 
-3.532187105873e-16                6     3     0     0 
-4.354134837486e-03                6     4     0     0 
6.710290553465e-15                 6     5     0     0 
2.682057582844e+00                 6     6     0     0 
0                                  0     0     0     0