15
	Energy:       1.5497060
C         -3.06500        3.29018        0.17286
C         -1.61057        3.73358        0.28107
C         -3.04186        1.76121        0.15260
H         -3.54182        3.70275       -0.72201
H         -3.63636        3.64063        1.04019
C         -0.90437        2.54777        0.91574
H         -1.49830        4.65009        0.86749
H         -1.20344        3.92074       -0.71985
C         -1.57450        1.35949        0.24751
H         -3.50784        1.35810       -0.75222
H         -3.60053        1.37088        1.01113
H         -1.16300        1.21366       -0.75848
H         -1.43358        0.43046        0.80743
H         -1.08573        2.52974        1.99681
H          0.17596        2.56658        0.74699
